/*--------------------------------*- C++ -*----------------------------------*\
| =========                 |                                                 |
| \\      /  F ield         | OpenFOAM: The Open Source CFD Toolbox           |
|  \\    /   O peration     | Version:  2512                                  |
|   \\  /    A nd           | Website:  www.openfoam.com                      |
|    \\/     M anipulation  |                                                 |
\*---------------------------------------------------------------------------*/
FoamFile
{
    version     2.0;
    format      ascii;
    arch        "LSB;label=32;scalar=64";
    class       volScalarField;
    location    "0";
    object      p;
}
// * * * * * * * * * * * * * * * * * * * * * * * * * * * * * * * * * * * * * //

dimensions      [0 2 -2 0 0 0 0];

internalField   uniform 83333.3333333333;

boundaryField
{
    wall
    {
        type            zeroGradient;
    }
    defaultFaces
    {
        type            zeroGradient;
    }
    constraint_master
    {
        type            cyclicAMI;
        value           nonuniform List<scalar> 
110
(
83333.3333333333
83333.3333333333
83333.3333333333
83333.3333333333
83333.3333333333
83333.3333333333
83333.3333333333
83333.3333333333
83333.3333333333
83333.3333333333
83333.3333333333
83333.3333333333
83333.3333333333
83333.3333333333
83333.3333333333
83333.3333333333
83333.3333333333
83333.3333333333
83333.3333333333
83333.3333333333
83333.3333333333
83333.3333333333
83333.3333333333
83333.3333333333
83333.3333333333
83333.3333333333
83333.3333333333
83333.3333333333
83333.3333333333
83333.3333333333
83333.3333333333
83333.3333333333
83333.3333333333
83333.3333333333
83333.3333333333
83333.3333333333
83333.3333333333
83333.3333333333
83333.3333333333
83333.3333333333
83333.3333333333
83333.3333333333
83333.3333333333
83333.3333333333
83333.3333333333
83333.3333333333
83333.3333333333
83333.3333333333
83333.3333333333
83333.3333333333
83333.3333333333
83333.3333333333
83333.3333333333
83333.3333333333
83333.3333333333
83333.3333333333
83333.3333333333
83333.3333333333
83333.3333333333
83333.3333333333
83333.3333333333
83333.3333333333
83333.3333333333
83333.3333333333
83333.3333333334
83333.3333333333
83333.3333333333
83333.3333333333
83333.3333333333
83333.3333333333
83333.3333333333
83333.3333333333
83333.3333333333
83333.3333333333
83333.3333333333
83333.3333333333
83333.3333333333
83333.3333333333
83333.3333333333
83333.3333333333
83333.3333333333
83333.3333333333
83333.3333333333
83333.3333333333
83333.3333333333
83333.3333333333
83333.3333333333
83333.3333333333
83333.3333333333
83333.3333333333
83333.3333333333
83333.3333333333
83333.3333333333
83333.3333333333
83333.3333333333
83333.3333333333
83333.3333333333
83333.3333333333
83333.3333333333
83333.3333333333
83333.3333333333
83333.3333333333
83333.3333333333
83333.3333333333
83333.3333333333
83333.3333333333
83333.3333333333
83333.3333333333
83333.3333333333
83333.3333333333
)
;
    }
    constraint_slave
    {
        type            cyclicAMI;
        value           nonuniform List<scalar> 0();
    }
    procBoundary2to0
    {
        type            processor;
        value           uniform 83333.3333333333;
    }
    procBoundary2to3
    {
        type            processor;
        value           uniform 83333.3333333333;
    }
}


// ************************************************************************* //
